[
    {
        "symbol": "H",
        "name": "Hydrogène",
        "atomicNumber": 1,
        "atomicMass": 1.008,
        "discoveryYear": 1766,
        "discoveredBy": "Henry Cavendish",
        "group": 1,
        "period": 1,
        "electronConfiguration": "1s1",
        "electronShells": [1],
        "radioactive": false,
        "meltingPoint": 14.01,
        "boilingPoint": 20.28,
        "magnetism": "Diamagnétique",
        "color": "#FFFFFF",
        "size": 0.25
    },
    {
        "symbol": "He",
        "name": "Hélium",
        "atomicNumber": 2,
        "atomicMass": 4.0026,
        "discoveryYear": 1895,
        "discoveredBy": "Sir William Ramsay",
        "group": 18,
        "period": 1,
        "electronConfiguration": "1s2",
        "electronShells": [2],
        "radioactive": false,
        "meltingPoint": 0.95,
        "boilingPoint": 4.22,
        "magnetism": "Diamagnétique",
        "color": "#B4B7B4",
        "size": 0.3
    },
    {
        "symbol": "Li",
        "name": "Lithium",
        "atomicNumber": 3,
        "atomicMass": 6.94,
        "discoveryYear": 1817,
        "discoveredBy": "Johann August Arfvedson",
        "group": 1,
        "period": 2,
        "electronConfiguration": "1s2 2s1",
        "electronShells": [2, 1],
        "radioactive": false,
        "meltingPoint": 180.54,
        "boilingPoint": 1590,
        "magnetism": "Paramagnétique",
        "color": "#C4C4C4",
        "size": 0.4
    },
    {
        "symbol": "Be",
        "name": "Béryllium",
        "atomicNumber": 4,
        "atomicMass": 9.0122,
        "discoveryYear": 1798,
        "discoveredBy": "Louis-Nicolas Vauquelin",
        "group": 2,
        "period": 2,
        "electronConfiguration": "1s2 2s2",
        "electronShells": [2, 2],
        "radioactive": false,
        "meltingPoint": 1278,
        "boilingPoint": 2970,
        "magnetism": "Paramagnétique",
        "color": "#8A8A8A",
        "size": 0.4
    },
    {
        "symbol": "B",
        "name": "Bore",
        "atomicNumber": 5,
        "atomicMass": 10.81,
        "discoveryYear": 1808,
        "discoveredBy": "Joseph-Louis Gay-Lussac, Louis-Jacques Thénard, et Humphry Davy",
        "group": 13,
        "period": 2,
        "electronConfiguration": "1s2 2s2 2p1",
        "electronShells": [2, 3],
        "radioactive": false,
        "meltingPoint": 2076,
        "boilingPoint": 3927,
        "magnetism": "Diamagnétique",
        "color": "#B9B9B9",
        "size": 0.45
    },
    {
        "symbol": "C",
        "name": "Carbone",
        "atomicNumber": 6,
        "atomicMass": 12.011,
        "discoveryYear": "Antiquité",
        "discoveredBy": "Inconnu",
        "group": 14,
        "period": 2,
        "electronConfiguration": "1s2 2s2 2p2",
        "electronShells": [2, 4],
        "radioactive": false,
        "meltingPoint": 3915,
        "boilingPoint": 4827,
        "magnetism": "Diamagnétique",
        "color": "#333333",
        "size": 0.5
    },
    {
        "symbol": "N",
        "name": "Azote",
        "atomicNumber": 7,
        "atomicMass": 14.007,
        "discoveryYear": 1772,
        "discoveredBy": "Daniel Rutherford",
        "group": 15,
        "period": 2,
        "electronConfiguration": "1s2 2s2 2p3",
        "electronShells": [2, 5],
        "radioactive": false,
        "meltingPoint": 63.15,
        "boilingPoint": 77.36,
        "magnetism": "Diamagnétique",
        "color": "#000000",
        "size": 0.45
    },
    {
        "symbol": "O",
        "name": "Oxygène",
        "atomicNumber": 8,
        "atomicMass": 16.00,
        "discoveryYear": 1774,
        "discoveredBy": "Joseph Priestley",
        "group": 16,
        "period": 2,
        "electronConfiguration": "1s2 2s2 2p4",
        "electronShells": [2, 6],
        "radioactive": false,
        "meltingPoint": 54.36,
        "boilingPoint": 90.20,
        "magnetism": "Paramagnétique",
        "color": "#00BFFF",
        "size": 0.3
    },
    {
        "symbol": "F",
        "name": "Fluor",
        "atomicNumber": 9,
        "atomicMass": 18.998,
        "discoveryYear": 1886,
        "discoveredBy": "Henri Moissan",
        "group": 17,
        "period": 2,
        "electronConfiguration": "1s2 2s2 2p5",
        "electronShells": [2, 7],
        "radioactive": false,
        "meltingPoint": 53.53,
        "boilingPoint": 85.03,
        "magnetism": "Paramagnétique",
        "color": "#00FF00",
        "size": 0.3
    },
    {
        "symbol": "Ne",
        "name": "Néon",
        "atomicNumber": 10,
        "atomicMass": 20.180,
        "discoveryYear": 1898,
        "discoveredBy": "William Ramsay et Morris Travers",
        "group": 18,
        "period": 2,
        "electronConfiguration": "1s2 2s2 2p6",
        "electronShells": [2, 8],
        "radioactive": false,
        "meltingPoint": 24.56,
        "boilingPoint": 27.07,
        "magnetism": "Diamagnétique",
        "color": "#FF6347",
        "size": 0.25
    },
    {
        "symbol": "Na",
        "name": "Sodium",
        "atomicNumber": 11,
        "atomicMass": 22.990,
        "discoveryYear": 1807,
        "discoveredBy": "Humphry Davy",
        "group": 1,
        "period": 3,
        "electronConfiguration": "1s2 2s2 2p6 3s1",
        "electronShells": [2, 8, 1],
        "radioactive": false,
        "meltingPoint": 371.0,
        "boilingPoint": 1156,
        "magnetism": "Paramagnétique",
        "color": "#FFFF00",
        "size": 0.4
    },
    {
        "symbol": "Mg",
        "name": "Magnésium",
        "atomicNumber": 12,
        "atomicMass": 24.305,
        "discoveryYear": 1808,
        "discoveredBy": "Humphry Davy",
        "group": 2,
        "period": 3,
        "electronConfiguration": "1s2 2s2 2p6 3s2",
        "electronShells": [2, 8, 2],
        "radioactive": false,
        "meltingPoint": 923,
        "boilingPoint": 1380,
        "magnetism": "Paramagnétique",
        "color": "#00FF00",
        "size": 0.4
    },
    {
        "symbol": "Al",
        "name": "Aluminium",
        "atomicNumber": 13,
        "atomicMass": 26.982,
        "discoveryYear": 1825,
        "discoveredBy": "Hans Christian Ørsted",
        "group": 13,
        "period": 3,
        "electronConfiguration": "1s2 2s2 2p6 3s2 3p1",
        "electronShells": [2, 8, 3],
        "radioactive": false,
        "meltingPoint": 933.47,
        "boilingPoint": 2743,
        "magnetism": "Diamagnétique",
        "color": "#A9A9A9",
        "size": 0.5
    },
    {
        "symbol": "Si",
        "name": "Silicium",
        "atomicNumber": 14,
        "atomicMass": 28.085,
        "discoveryYear": 1824,
        "discoveredBy": "Jöns Jacob Berzelius",
        "group": 14,
        "period": 3,
        "electronConfiguration": "1s2 2s2 2p6 3s2 3p2",
        "electronShells": [2, 8, 4],
        "radioactive": false,
        "meltingPoint": 1687,
        "boilingPoint": 3538,
        "magnetism": "Diamagnétique",
        "color": "#C0C0C0",
        "size": 0.45
    },
    {
        "symbol": "P",
        "name": "Phosphore",
        "atomicNumber": 15,
        "atomicMass": 30.974,
        "discoveryYear": 1669,
        "discoveredBy": "Hennig Brand",
        "group": 15,
        "period": 3,
        "electronConfiguration": "1s2 2s2 2p6 3s2 3p3",
        "electronShells": [2, 8, 5],
        "radioactive": false,
        "meltingPoint": 317.3,
        "boilingPoint": 553.5,
        "magnetism": "Diamagnétique",
        "color": "#FF1493",
        "size": 0.45
    },
    {
        "symbol": "S",
        "name": "Soufre",
        "atomicNumber": 16,
        "atomicMass": 32.06,
        "discoveryYear": "Antiquité",
        "discoveredBy": "Inconnu",
        "group": 16,
        "period": 3,
        "electronConfiguration": "1s2 2s2 2p6 3s2 3p4",
        "electronShells": [2, 8, 6],
        "radioactive": false,
        "meltingPoint": 388.36,
        "boilingPoint": 717.8,
        "magnetism": "Diamagnétique",
        "color": "#FFFF00",
        "size": 0.45
    },
    {
        "symbol": "Cl",
        "name": "Chlore",
        "atomicNumber": 17,
        "atomicMass": 35.45,
        "discoveryYear": 1774,
        "discoveredBy": "Joseph Priestley",
        "group": 17,
        "period": 3,
        "electronConfiguration": "1s2 2s2 2p6 3s2 3p5",
        "electronShells": [2, 8, 7],
        "radioactive": false,
        "meltingPoint": 171.6,
        "boilingPoint": 239.11,
        "magnetism": "Paramagnétique",
        "color": "#00FF00",
        "size": 0.45
    },
    {
        "symbol": "Ar",
        "name": "Argon",
        "atomicNumber": 18,
        "atomicMass": 39.948,
        "discoveryYear": 1894,
        "discoveredBy": "Lord Rayleigh et William Ramsay",
        "group": 18,
        "period": 3,
        "electronConfiguration": "1s2 2s2 2p6 3s2 3p6",
        "electronShells": [2, 8, 8],
        "radioactive": false,
        "meltingPoint": 83.81,
        "boilingPoint": 87.3,
        "magnetism": "Diamagnétique",
        "color": "#B0E0E6",
        "size": 0.25
    },
    {
        "symbol": "K",
        "name": "Potassium",
        "atomicNumber": 19,
        "atomicMass": 39.098,
        "discoveryYear": 1807,
        "discoveredBy": "Humphry Davy",
        "group": 1,
        "period": 4,
        "electronConfiguration": "1s2 2s2 2p6 3s2 3p6 4s1",
        "electronShells": [2, 8, 8, 1],
        "radioactive": false,
        "meltingPoint": 336.7,
        "boilingPoint": 1032,
        "magnetism": "Paramagnétique",
        "color": "#8B0000",
        "size": 0.4
    },
    {
        "symbol": "Ca",
        "name": "Calcium",
        "atomicNumber": 20,
        "atomicMass": 40.078,
        "discoveryYear": 1808,
        "discoveredBy": "Humphry Davy",
        "group": 2,
        "period": 4,
        "electronConfiguration": "1s2 2s2 2p6 3s2 3p6 4s2",
        "electronShells": [2, 8, 8, 2],
        "radioactive": false,
        "meltingPoint": 1115,
        "boilingPoint": 1757,
        "magnetism": "Paramagnétique",
        "color": "#FF6347",
        "size": 0.5
    },
    {
        "symbol": "Sc",
        "name": "Scandium",
        "atomicNumber": 21,
        "atomicMass": 44.956,
        "discoveryYear": 1879,
        "discoveredBy": "Lars Fredrik Nilson",
        "group": 3,
        "period": 4,
        "electronConfiguration": "[Ar] 3d1 4s2",
        "electronShells": [2, 8, 9],
        "radioactive": false,
        "meltingPoint": 1814,
        "boilingPoint": 2836,
        "magnetism": "Paramagnétique",
        "color": "#B0C4DE",
        "size": 0.5
    },
    {
        "symbol": "Ti",
        "name": "Titane",
        "atomicNumber": 22,
        "atomicMass": 47.867,
        "discoveryYear": 1791,
        "discoveredBy": "William Gregor",
        "group": 4,
        "period": 4,
        "electronConfiguration": "[Ar] 3d2 4s2",
        "electronShells": [2, 8, 10, 2],
        "radioactive": false,
        "meltingPoint": 1941,
        "boilingPoint": 3560,
        "magnetism": "Paramagnétique",
        "color": "#A9A9A9",
        "size": 0.6
    },
    {
        "symbol": "V",
        "name": "Vanadium",
        "atomicNumber": 23,
        "atomicMass": 50.942,
        "discoveryYear": 1801,
        "discoveredBy": "Andrés Manuel del Río",
        "group": 5,
        "period": 4,
        "electronConfiguration": "[Ar] 3d3 4s2",
        "electronShells": [2, 8, 11, 2],
        "radioactive": false,
        "meltingPoint": 1910,
        "boilingPoint": 3380,
        "magnetism": "Paramagnétique",
        "color": "#8A2BE2",
        "size": 0.65
    },
    {
        "symbol": "Cr",
        "name": "Chromium",
        "atomicNumber": 24,
        "atomicMass": 52.00,
        "discoveryYear": 1797,
        "discoveredBy": "Nicholas-Louis Vauquelin",
        "group": 6,
        "period": 4,
        "electronConfiguration": "[Ar] 3d5 4s1",
        "electronShells": [2, 8, 13, 1],
        "radioactive": false,
        "meltingPoint": 1907,
        "boilingPoint": 2671,
        "magnetism": "Ferromagnétique",
        "color": "#B0C4DE",
        "size": 0.65
    },
    {
        "symbol": "Mn",
        "name": "Manganèse",
        "atomicNumber": 25,
        "atomicMass": 54.938,
        "discoveryYear": 1774,
        "discoveredBy": "Johann Gottlieb Gahn",
        "group": 7,
        "period": 4,
        "electronConfiguration": "[Ar] 3d5 4s2",
        "electronShells": [2, 8, 13, 2],
        "radioactive": false,
        "meltingPoint": 1244,
        "boilingPoint": 2095,
        "magnetism": "Ferromagnétique",
        "color": "#8B008B",
        "size": 0.7
    },
    {
        "symbol": "Fe",
        "name": "Fer",
        "atomicNumber": 26,
        "atomicMass": 55.845,
        "discoveryYear": "Antiquité",
        "discoveredBy": "Inconnu",
        "group": 8,
        "period": 4,
        "electronConfiguration": "[Ar] 3d6 4s2",
        "electronShells": [2, 8, 14, 2],
        "radioactive": false,
        "meltingPoint": 1811,
        "boilingPoint": 3134,
        "magnetism": "Ferromagnétique",
        "color": "#B22222",
        "size": 0.75
    },
    {
        "symbol": "Co",
        "name": "Cobalt",
        "atomicNumber": 27,
        "atomicMass": 58.933,
        "discoveryYear": 1735,
        "discoveredBy": "Georg Brandt",
        "group": 9,
        "period": 4,
        "electronConfiguration": "[Ar] 3d7 4s2",
        "electronShells": [2, 8, 15, 2],
        "radioactive": false,
        "meltingPoint": 1495,
        "boilingPoint": 2927,
        "magnetism": "Ferromagnétique",
        "color": "#00008B",
        "size": 0.8
    },
    {
        "symbol": "Ni",
        "name": "Nickel",
        "atomicNumber": 28,
        "atomicMass": 58.693,
        "discoveryYear": 1751,
        "discoveredBy": "Axel Fredrik Cronstedt",
        "group": 10,
        "period": 4,
        "electronConfiguration": "[Ar] 3d8 4s2",
        "electronShells": [2, 8, 16, 2],
        "radioactive": false,
        "meltingPoint": 1455,
        "boilingPoint": 2913,
        "magnetism": "Ferromagnétique",
        "color": "#808080",
        "size": 0.85
    },
    {
        "symbol": "Cu",
        "name": "Cuivre",
        "atomicNumber": 29,
        "atomicMass": 63.546,
        "discoveryYear": "Antiquité",
        "discoveredBy": "Inconnu",
        "group": 11,
        "period": 4,
        "electronConfiguration": "[Ar] 3d10 4s1",
        "electronShells": [2, 8, 18, 1],
        "radioactive": false,
        "meltingPoint": 1357.77,
        "boilingPoint": 2835,
        "magnetism": "Paramagnétique",
        "color": "#B87333",
        "size": 0.9
    },
    {
        "symbol": "Zn",
        "name": "Zinc",
        "atomicNumber": 30,
        "atomicMass": 65.38,
        "discoveryYear": 1746,
        "discoveredBy": "Andreas Sigismund Marggraf",
        "group": 12,
        "period": 4,
        "electronConfiguration": "[Ar] 3d10 4s2",
        "electronShells": [2, 8, 18, 2],
        "radioactive": false,
        "meltingPoint": 419.58,
        "boilingPoint": 907,
        "magnetism": "Diamagnétique",
        "color": "#4682B4",
        "size": 0.6
    },
    {
        "symbol": "Ga",
        "name": "Gallium",
        "atomicNumber": 31,
        "atomicMass": 69.723,
        "discoveryYear": 1875,
        "discoveredBy": "Paul-Émile Lecoq de Boisbaudran",
        "group": 13,
        "period": 4,
        "electronConfiguration": "[Ar] 3d10 4s2 4p1",
        "electronShells": [2, 8, 18, 3],
        "radioactive": false,
        "meltingPoint": 29.76,
        "boilingPoint": 2204,
        "magnetism": "Diamagnétique",
        "color": "#B0C4DE",
        "size": 0.7
    },
    {
        "symbol": "Ge",
        "name": "Germanium",
        "atomicNumber": 32,
        "atomicMass": 72.63,
        "discoveryYear": 1886,
        "discoveredBy": "Clemens Winkler",
        "group": 14,
        "period": 4,
        "electronConfiguration": "[Ar] 3d10 4s2 4p2",
        "electronShells": [2, 8, 18, 4],
        "radioactive": false,
        "meltingPoint": 938.25,
        "boilingPoint": 2833,
        "magnetism": "Diamagnétique",
        "color": "#D3D3D3",
        "size": 0.8
    },
    {
        "symbol": "As",
        "name": "Arsenic",
        "atomicNumber": 33,
        "atomicMass": 74.922,
        "discoveryYear": "Antiquité",
        "discoveredBy": "Inconnu",
        "group": 15,
        "period": 4,
        "electronConfiguration": "[Ar] 3d10 4s2 4p3",
        "electronShells": [2, 8, 18, 5],
        "radioactive": false,
        "meltingPoint": 817,
        "boilingPoint": 613,
        "magnetism": "Diamagnétique",
        "color": "#C71585",
        "size": 0.9
    },
    {
        "symbol": "Se",
        "name": "Sélénium",
        "atomicNumber": 34,
        "atomicMass": 78.971,
        "discoveryYear": 1817,
        "discoveredBy": "Jöns Jacob Berzelius",
        "group": 16,
        "period": 4,
        "electronConfiguration": "[Ar] 3d10 4s2 4p4",
        "electronShells": [2, 8, 18, 6],
        "radioactive": false,
        "meltingPoint": 221,
        "boilingPoint": 684.9,
        "magnetism": "Diamagnétique",
        "color": "#FF4500",
        "size": 0.95
    },
    {
        "symbol": "Br",
        "name": "Brome",
        "atomicNumber": 35,
        "atomicMass": 79.904,
        "discoveryYear": 1826,
        "discoveredBy": "Antoine Jérôme Balard",
        "group": 17,
        "period": 4,
        "electronConfiguration": "[Ar] 3d10 4s2 4p5",
        "electronShells": [2, 8, 18, 7],
        "radioactive": false,
        "meltingPoint": 265.8,
        "boilingPoint": 332,
        "magnetism": "Diamagnétique",
        "color": "#B22222",
        "size": 1
    },
    {
        "symbol": "Kr",
        "name": "Krypton",
        "atomicNumber": 36,
        "atomicMass": 83.798,
        "discoveryYear": 1898,
        "discoveredBy": "William Ramsay, Morris Travers",
        "group": 18,
        "period": 4,
        "electronConfiguration": "[Ar] 3d10 4s2 4p6",
        "electronShells": [2, 8, 18],
        "radioactive": false,
        "meltingPoint": 115.79,
        "boilingPoint": 119.93,
        "magnetism": "Diamagnétique",
        "color": "#D3D3D3",
        "size": 1.05
    },
    {
        "symbol": "Rb",
        "name": "Rubidium",
        "atomicNumber": 37,
        "atomicMass": 85.468,
        "discoveryYear": 1861,
        "discoveredBy": "Robert Bunsen, Gustav Kirchhoff",
        "group": 1,
        "period": 5,
        "electronConfiguration": "[Kr] 5s1",
        "electronShells": [2, 8, 18, 1],
        "radioactive": true,
        "meltingPoint": 312.46,
        "boilingPoint": 688,
        "magnetism": "Paramagnétique",
        "color": "#7B68EE",
        "size": 1.15
    },
    {
        "symbol": "Sr",
        "name": "Strontium",
        "atomicNumber": 38,
        "atomicMass": 87.62,
        "discoveryYear": 1808,
        "discoveredBy": "Humphry Davy",
        "group": 2,
        "period": 5,
        "electronConfiguration": "[Kr] 5s2",
        "electronShells": [2, 8, 18, 8],
        "radioactive": false,
        "meltingPoint": 1050,
        "boilingPoint": 1384,
        "magnetism": "Paramagnétique",
        "color": "#CD5C5C",
        "size": 1.2
    },
    {
        "symbol": "Y",
        "name": "Yttrium",
        "atomicNumber": 39,
        "atomicMass": 88.906,
        "discoveryYear": 1794,
        "discoveredBy": "Jöns Jacob Berzelius",
        "group": 3,
        "period": 5,
        "electronConfiguration": "[Kr] 4d1 5s2",
        "electronShells": [2, 8, 18, 9],
        "radioactive": false,
        "meltingPoint": 1526,
        "boilingPoint": 3338,
        "magnetism": "Paramagnétique",
        "color": "#8B0000",
        "size": 1.25
    },
    {
        "symbol": "Zr",
        "name": "Zirconium",
        "atomicNumber": 40,
        "atomicMass": 91.224,
        "discoveryYear": 1789,
        "discoveredBy": "Martin Heinrich Klaproth",
        "group": 4,
        "period": 5,
        "electronConfiguration": "[Kr] 4d2 5s2",
        "electronShells": [2, 8, 18, 10],
        "radioactive": false,
        "meltingPoint": 1855,
        "boilingPoint": 4377,
        "magnetism": "Paramagnétique",
        "color": "#B0C4DE",
        "size": 1.3
    },
    {
        "symbol": "Nb",
        "name": "Néodyme",
        "atomicNumber": 41,
        "atomicMass": 92.906,
        "discoveryYear": 1801,
        "discoveredBy": "Charles de la Bédoyère",
        "group": 5,
        "period": 5,
        "electronConfiguration": "[Kr] 4d4 5s1",
        "electronShells": [2, 8, 18, 12],
        "radioactive": false,
        "meltingPoint": 2477,
        "boilingPoint": 4744,
        "magnetism": "Paramagnétique",
        "color": "#8A2BE2",
        "size": 1.35
    },
    {
        "symbol": "Mo",
        "name": "Molybdène",
        "atomicNumber": 42,
        "atomicMass": 95.95,
        "discoveryYear": 1778,
        "discoveredBy": "Carl Wilhelm Scheele",
        "group": 6,
        "period": 5,
        "electronConfiguration": "[Kr] 4d5 5s1",
        "electronShells": [2, 8, 18, 13],
        "radioactive": false,
        "meltingPoint": 2623,
        "boilingPoint": 4639,
        "magnetism": "Paramagnétique",
        "color": "#DC143C",
        "size": 1.4
    },
    {
        "symbol": "Tc",
        "name": "Technétium",
        "atomicNumber": 43,
        "atomicMass": 98,
        "discoveryYear": 1937,
        "discoveredBy": "Carlo Perrier, Emilio Segrè",
        "group": 7,
        "period": 5,
        "electronConfiguration": "[Kr] 4d5 5s2",
        "electronShells": [2, 8, 18, 13],
        "radioactive": true,
        "meltingPoint": 2200,
        "boilingPoint": 4265,
        "magnetism": "Paramagnétique",
        "color": "#2F4F4F",
        "size": 1.45
    },
    {
        "symbol": "Ru",
        "name": "Ruthénium",
        "atomicNumber": 44,
        "atomicMass": 101.07,
        "discoveryYear": 1844,
        "discoveredBy": "Karl Ernst Claus",
        "group": 8,
        "period": 5,
        "electronConfiguration": "[Kr] 4d7 5s1",
        "electronShells": [2, 8, 18, 15],
        "radioactive": false,
        "meltingPoint": 2334,
        "boilingPoint": 4130,
        "magnetism": "Paramagnétique",
        "color": "#C0C0C0",
        "size": 1.5
    },
    {
        "symbol": "Rh",
        "name": "Rhodium",
        "atomicNumber": 45,
        "atomicMass": 102.91,
        "discoveryYear": 1803,
        "discoveredBy": "William Hyde Wollaston",
        "group": 9,
        "period": 5,
        "electronConfiguration": "[Kr] 4d8 5s1",
        "electronShells": [2, 8, 18, 16],
        "radioactive": false,
        "meltingPoint": 1964,
        "boilingPoint": 3695,
        "magnetism": "Paramagnétique",
        "color": "#B8B8B8",
        "size": 1.55
    },
    {
        "symbol": "Pd",
        "name": "Palladium",
        "atomicNumber": 46,
        "atomicMass": 106.42,
        "discoveryYear": 1803,
        "discoveredBy": "William Hyde Wollaston",
        "group": 10,
        "period": 5,
        "electronConfiguration": "[Kr] 4d10",
        "electronShells": [2, 8, 18, 18],
        "radioactive": false,
        "meltingPoint": 1554,
        "boilingPoint": 2963,
        "magnetism": "Diamagnétique",
        "color": "#E6E6FA",
        "size": 1.6
    }
]
